 # Fcc Au oriented X=[100], Y=[010], Z=[001].
  
           4  atoms
           2  atom types
 
      0.000000000000       4.078000000000  xlo xhi
      0.000000000000       4.078000000000  ylo yhi
      0.000000000000       4.078000000000  zlo zhi
 
Masses
 
            1   196.96656900            # Au
            2   63.54600000             # Cu
 
Atoms # atomic
 
         1    1        0.000000000000       0.000000000000       0.000000000000
         2    1        2.039000000000       2.039000000000       0.000000000000
         3    2        0.000000000000       2.039000000000       2.039000000000
         4    2        2.039000000000       0.000000000000       2.039000000000
