nqpoint: 404    
npath: 4      
segment_nqpoint:
- 101
- 101
- 101
- 101
labels:
- [ 'G', 'X' ]
- [ 'X', 'M' ]
- [ 'M', 'G' ]
- [ 'G', 'R' ]
reciprocal_lattice:
- [   0.24521824,  -0.24521824,   0.00000000 ] # a*
- [   0.24521824,   0.24521824,   0.00000000 ] # b*
- [   0.00000000,   0.00000000,   0.24521824 ] # c*
natom: 2      
lattice:
- [     2.039000000000000,    -2.039000000000000,     0.000000000000000 ] # a
- [     2.039000000000000,     2.039000000000000,     0.000000000000000 ] # b
- [     0.000000000000000,     0.000000000000000,     4.078000000000000 ] # c
points:
- symbol: Au # 1
  coordinates: [  0.000000000000000,  0.000000000000000,  0.000000000000000 ]
  mass: 196.966569
- symbol: Cu # 2
  coordinates: [  0.500000000000000,  0.500000000000000,  0.500000000000000 ]
  mass: 63.546000

phonon:
- q-position: [    0.0000000,    0.0000000,    0.0000000 ]
  distance:    0.0000000
  band:
  - # 1
    frequency:    0.0002574591
  - # 2
    frequency:    0.0002574591
  - # 3
    frequency:    0.0004306778
  - # 4
    frequency:    2.3056399462
  - # 5
    frequency:    2.3056399462
  - # 6
    frequency:    3.5018837362

- q-position: [    0.0050000,    0.0000000,    0.0000000 ]
  distance:    0.0017340
  band:
  - # 1
    frequency:    0.0179744198
  - # 2
    frequency:    0.0197752878
  - # 3
    frequency:    0.0496213353
  - # 4
    frequency:    2.3056762329
  - # 5
    frequency:    2.3067177254
  - # 6
    frequency:    3.5017970018

- q-position: [    0.0100000,    0.0000000,    0.0000000 ]
  distance:    0.0034679
  band:
  - # 1
    frequency:    0.0359463371
  - # 2
    frequency:    0.0395335539
  - # 3
    frequency:    0.0991229791
  - # 4
    frequency:    2.3057848909
  - # 5
    frequency:    2.3099502059
  - # 6
    frequency:    3.5015367720

- q-position: [    0.0150000,    0.0000000,    0.0000000 ]
  distance:    0.0052019
  band:
  - # 1
    frequency:    0.0539304372
  - # 2
    frequency:    0.0592634109
  - # 3
    frequency:    0.1483885124
  - # 4
    frequency:    2.3059653141
  - # 5
    frequency:    2.3153347393
  - # 6
    frequency:    3.5011029673

- q-position: [    0.0200000,    0.0000000,    0.0000000 ]
  distance:    0.0069358
  band:
  - # 1
    frequency:    0.0719306282
  - # 2
    frequency:    0.0789500767
  - # 3
    frequency:    0.1973022204
  - # 4
    frequency:    2.3062164934
  - # 5
    frequency:    2.3228666574
  - # 6
    frequency:    3.5004954554

- q-position: [    0.0250000,    0.0000000,    0.0000000 ]
  distance:    0.0086698
  band:
  - # 1
    frequency:    0.0899518101
  - # 2
    frequency:    0.0985792485
  - # 3
    frequency:    0.2457516677
  - # 4
    frequency:    2.3065370172
  - # 5
    frequency:    2.3325389023
  - # 6
    frequency:    3.4997140518

- q-position: [    0.0300000,    0.0000000,    0.0000000 ]
  distance:    0.0104037
  band:
  - # 1
    frequency:    0.1079990015
  - # 2
    frequency:    0.1181368709
  - # 3
    frequency:    0.2936286350
  - # 4
    frequency:    2.3069250738
  - # 5
    frequency:    2.3443415320
  - # 6
    frequency:    3.4987585209

- q-position: [    0.0350000,    0.0000000,    0.0000000 ]
  distance:    0.0121377
  band:
  - # 1
    frequency:    0.1260772038
  - # 2
    frequency:    0.1376091419
  - # 3
    frequency:    0.3408301408
  - # 4
    frequency:    2.3073784533
  - # 5
    frequency:    2.3582611241
  - # 6
    frequency:    3.4976285763

- q-position: [    0.0400000,    0.0000000,    0.0000000 ]
  distance:    0.0138716
  band:
  - # 1
    frequency:    0.1441913578
  - # 2
    frequency:    0.1569825486
  - # 3
    frequency:    0.3872594499
  - # 4
    frequency:    2.3078945504
  - # 5
    frequency:    2.3742801078
  - # 6
    frequency:    3.4963238826

- q-position: [    0.0450000,    0.0000000,    0.0000000 ]
  distance:    0.0156056
  band:
  - # 1
    frequency:    0.1623463202
  - # 2
    frequency:    0.1762439074
  - # 3
    frequency:    0.4328270381
  - # 4
    frequency:    2.3084703678
  - # 5
    frequency:    2.3923760585
  - # 6
    frequency:    3.4948440566

- q-position: [    0.0500000,    0.0000000,    0.0000000 ]
  distance:    0.0173395
  band:
  - # 1
    frequency:    0.1805468477
  - # 2
    frequency:    0.1953804057
  - # 3
    frequency:    0.4774514865
  - # 4
    frequency:    2.3091025207
  - # 5
    frequency:    2.4125209957
  - # 6
    frequency:    3.4931886688

- q-position: [    0.0550000,    0.0000000,    0.0000000 ]
  distance:    0.0190735
  band:
  - # 1
    frequency:    0.1987975821
  - # 2
    frequency:    0.2143796420
  - # 3
    frequency:    0.5210602739
  - # 4
    frequency:    2.3097872419
  - # 5
    frequency:    2.4346807261
  - # 6
    frequency:    3.4913572453

- q-position: [    0.0600000,    0.0000000,    0.0000000 ]
  distance:    0.0208075
  band:
  - # 1
    frequency:    0.2171030382
  - # 2
    frequency:    0.2332296649
  - # 3
    frequency:    0.5635904361
  - # 4
    frequency:    2.3105203871
  - # 5
    frequency:    2.4588142742
  - # 6
    frequency:    3.4893492700

- q-position: [    0.0650000,    0.0000000,    0.0000000 ]
  distance:    0.0225414
  band:
  - # 1
    frequency:    0.2354675907
  - # 2
    frequency:    0.2519190103
  - # 3
    frequency:    0.6049890620
  - # 4
    frequency:    2.3112974424
  - # 5
    frequency:    2.4848734416
  - # 6
    frequency:    3.4871641870

- q-position: [    0.0700000,    0.0000000,    0.0000000 ]
  distance:    0.0242754
  band:
  - # 1
    frequency:    0.2538954635
  - # 2
    frequency:    0.2704367362
  - # 3
    frequency:    0.6452135989
  - # 4
    frequency:    2.3121135320
  - # 5
    frequency:    2.5128025279
  - # 6
    frequency:    3.4848014025

- q-position: [    0.0750000,    0.0000000,    0.0000000 ]
  distance:    0.0260093
  band:
  - # 1
    frequency:    0.2723907176
  - # 2
    frequency:    0.2887724553
  - # 3
    frequency:    0.6842319494
  - # 4
    frequency:    2.3129634269
  - # 5
    frequency:    2.5425382405
  - # 6
    frequency:    3.4822602883

- q-position: [    0.0800000,    0.0000000,    0.0000000 ]
  distance:    0.0277433
  band:
  - # 1
    frequency:    0.2909572409
  - # 2
    frequency:    0.3069163660
  - # 3
    frequency:    0.7220223505
  - # 4
    frequency:    2.3138415557
  - # 5
    frequency:    2.5740098063
  - # 6
    frequency:    3.4795401843

- q-position: [    0.0850000,    0.0000000,    0.0000000 ]
  distance:    0.0294772
  band:
  - # 1
    frequency:    0.3095987373
  - # 2
    frequency:    0.3248592793
  - # 3
    frequency:    0.7585730360
  - # 4
    frequency:    2.3147420157
  - # 5
    frequency:    2.6071392895
  - # 6
    frequency:    3.4766404018

- q-position: [    0.0900000,    0.0000000,    0.0000000 ]
  distance:    0.0312112
  band:
  - # 1
    frequency:    0.3283187173
  - # 2
    frequency:    0.3425926449
  - # 3
    frequency:    0.7938816971
  - # 4
    frequency:    2.3156585858
  - # 5
    frequency:    2.6418421040
  - # 6
    frequency:    3.4735602270

- q-position: [    0.0950000,    0.0000000,    0.0000000 ]
  distance:    0.0329451
  band:
  - # 1
    frequency:    0.3471204875
  - # 2
    frequency:    0.3601085725
  - # 3
    frequency:    0.8279547643
  - # 4
    frequency:    2.3165847407
  - # 5
    frequency:    2.6780276993
  - # 6
    frequency:    3.4702989245

- q-position: [    0.1000000,    0.0000000,    0.0000000 ]
  distance:    0.0346791
  band:
  - # 1
    frequency:    0.3660071424
  - # 2
    frequency:    0.3773998523
  - # 3
    frequency:    0.8608065462
  - # 4
    frequency:    2.3175136665
  - # 5
    frequency:    2.7156003888
  - # 6
    frequency:    3.4668557414

- q-position: [    0.1050000,    0.0000000,    0.0000000 ]
  distance:    0.0364131
  band:
  - # 1
    frequency:    0.3849815547
  - # 2
    frequency:    0.3944599708
  - # 3
    frequency:    0.8924582606
  - # 4
    frequency:    2.3184382782
  - # 5
    frequency:    2.7544602821
  - # 6
    frequency:    3.4632299111

- q-position: [    0.1100000,    0.0000000,    0.0000000 ]
  distance:    0.0381470
  band:
  - # 1
    frequency:    0.4040463674
  - # 2
    frequency:    0.4112831244
  - # 3
    frequency:    0.9229370036
  - # 4
    frequency:    2.3193512374
  - # 5
    frequency:    2.7945042820
  - # 6
    frequency:    3.4594206583

- q-position: [    0.1150000,    0.0000000,    0.0000000 ]
  distance:    0.0398810
  band:
  - # 1
    frequency:    0.4232039856
  - # 2
    frequency:    0.4278642302
  - # 3
    frequency:    0.9522746956
  - # 4
    frequency:    2.3202449734
  - # 5
    frequency:    2.8356271038
  - # 6
    frequency:    3.4554272028

- q-position: [    0.1200000,    0.0000000,    0.0000000 ]
  distance:    0.0416149
  band:
  - # 1
    frequency:    0.4424565690
  - # 2
    frequency:    0.4441989333
  - # 3
    frequency:    0.9805070422
  - # 4
    frequency:    2.3211117041
  - # 5
    frequency:    2.8777222815
  - # 6
    frequency:    3.4512487650

- q-position: [    0.1250000,    0.0000000,    0.0000000 ]
  distance:    0.0433489
  band:
  - # 1
    frequency:    0.4602836107
  - # 2
    frequency:    0.4618060243
  - # 3
    frequency:    1.0076725445
  - # 4
    frequency:    2.3219434589
  - # 5
    frequency:    2.9206831264
  - # 6
    frequency:    3.4468845708

- q-position: [    0.1300000,    0.0000000,    0.0000000 ]
  distance:    0.0450828
  band:
  - # 1
    frequency:    0.4761153728
  - # 2
    frequency:    0.4812539986
  - # 3
    frequency:    1.0338115815
  - # 4
    frequency:    2.3227321035
  - # 5
    frequency:    2.9644036140
  - # 6
    frequency:    3.4423338571

- q-position: [    0.1350000,    0.0000000,    0.0000000 ]
  distance:    0.0468168
  band:
  - # 1
    frequency:    0.4916920618
  - # 2
    frequency:    0.5008018729
  - # 3
    frequency:    1.0589655858
  - # 4
    frequency:    2.3234693655
  - # 5
    frequency:    3.0087791807
  - # 6
    frequency:    3.4375958771

- q-position: [    0.1400000,    0.0000000,    0.0000000 ]
  distance:    0.0485507
  band:
  - # 1
    frequency:    0.5070122462
  - # 2
    frequency:    0.5204507560
  - # 3
    frequency:    1.0831763218
  - # 4
    frequency:    2.3241468612
  - # 5
    frequency:    3.0537074183
  - # 6
    frequency:    3.4326699069

- q-position: [    0.1450000,    0.0000000,    0.0000000 ]
  distance:    0.0502847
  band:
  - # 1
    frequency:    0.5220752133
  - # 2
    frequency:    0.5402014782
  - # 3
    frequency:    1.1064852722
  - # 4
    frequency:    2.3247561239
  - # 5
    frequency:    3.0990886613
  - # 6
    frequency:    3.4275552510

- q-position: [    0.1500000,    0.0000000,    0.0000000 ]
  distance:    0.0520186
  band:
  - # 1
    frequency:    0.5368809584
  - # 2
    frequency:    0.5600545862
  - # 3
    frequency:    1.1289331326
  - # 4
    frequency:    2.3252886331
  - # 5
    frequency:    3.1448264685
  - # 6
    frequency:    3.4222512494

- q-position: [    0.1550000,    0.0000000,    0.0000000 ]
  distance:    0.0537526
  band:
  - # 1
    frequency:    0.5514301710
  - # 2
    frequency:    0.5800103378
  - # 3
    frequency:    1.1505594073
  - # 4
    frequency:    2.3257358447
  - # 5
    frequency:    3.1908280021
  - # 6
    frequency:    3.4167572838

- q-position: [    0.1600000,    0.0000000,    0.0000000 ]
  distance:    0.0554866
  band:
  - # 1
    frequency:    0.5657242185
  - # 2
    frequency:    0.6000686967
  - # 3
    frequency:    1.1714021013
  - # 4
    frequency:    2.3260892224
  - # 5
    frequency:    3.2370043132
  - # 6
    frequency:    3.4110727856

- q-position: [    0.1650000,    0.0000000,    0.0000000 ]
  distance:    0.0572205
  band:
  - # 1
    frequency:    0.5797651267
  - # 2
    frequency:    0.6202293279
  - # 3
    frequency:    1.1914974965
  - # 4
    frequency:    2.3263402688
  - # 5
    frequency:    3.2832705418
  - # 6
    frequency:    3.4051972423

- q-position: [    0.1700000,    0.0000000,    0.0000000 ]
  distance:    0.0589545
  band:
  - # 1
    frequency:    0.5935555585
  - # 2
    frequency:    0.6404915930
  - # 3
    frequency:    1.2108800025
  - # 4
    frequency:    2.3264805585
  - # 5
    frequency:    3.3295460433
  - # 6
    frequency:    3.3991302063

- q-position: [    0.1750000,    0.0000000,    0.0000000 ]
  distance:    0.0606884
  band:
  - # 1
    frequency:    0.6070987895
  - # 2
    frequency:    0.6608545458
  - # 3
    frequency:    1.2295820702
  - # 4
    frequency:    2.3265017704
  - # 5
    frequency:    3.3757544514
  - # 6
    frequency:    3.3928713023

- q-position: [    0.1800000,    0.0000000,    0.0000000 ]
  distance:    0.0624224
  band:
  - # 1
    frequency:    0.6203986810
  - # 2
    frequency:    0.6813169283
  - # 3
    frequency:    1.2476341587
  - # 4
    frequency:    2.3263957209
  - # 5
    frequency:    3.3864202361
  - # 6
    frequency:    3.4218236882

- q-position: [    0.1850000,    0.0000000,    0.0000000 ]
  distance:    0.0641563
  band:
  - # 1
    frequency:    0.6334596513
  - # 2
    frequency:    0.7018771660
  - # 3
    frequency:    1.2650647442
  - # 4
    frequency:    2.3261543974
  - # 5
    frequency:    3.3797768038
  - # 6
    frequency:    3.4676859308

- q-position: [    0.1900000,    0.0000000,    0.0000000 ]
  distance:    0.0658903
  band:
  - # 1
    frequency:    0.6462866446
  - # 2
    frequency:    0.7225333640
  - # 3
    frequency:    1.2819003629
  - # 4
    frequency:    2.3257699913
  - # 5
    frequency:    3.3729409005
  - # 6
    frequency:    3.5132775436

- q-position: [    0.1950000,    0.0000000,    0.0000000 ]
  distance:    0.0676242
  band:
  - # 1
    frequency:    0.6588850971
  - # 2
    frequency:    0.7432833029
  - # 3
    frequency:    1.2981656795
  - # 4
    frequency:    2.3252349315
  - # 5
    frequency:    3.3659125309
  - # 6
    frequency:    3.5585389844

- q-position: [    0.2000000,    0.0000000,    0.0000000 ]
  distance:    0.0693582
  band:
  - # 1
    frequency:    0.6712609021
  - # 2
    frequency:    0.7641244343
  - # 3
    frequency:    1.3138835748
  - # 4
    frequency:    2.3245419170
  - # 5
    frequency:    3.3586918189
  - # 6
    frequency:    3.6034146903

- q-position: [    0.2050000,    0.0000000,    0.0000000 ]
  distance:    0.0710921
  band:
  - # 1
    frequency:    0.6834203724
  - # 2
    frequency:    0.7850538770
  - # 3
    frequency:    1.3290752461
  - # 4
    frequency:    2.3236839496
  - # 5
    frequency:    3.3512790184
  - # 6
    frequency:    3.6478529491

- q-position: [    0.2100000,    0.0000000,    0.0000000 ]
  distance:    0.0728261
  band:
  - # 1
    frequency:    0.6953702012
  - # 2
    frequency:    0.8060684116
  - # 3
    frequency:    1.3437603163
  - # 4
    frequency:    2.3226543664
  - # 5
    frequency:    3.3436745251
  - # 6
    frequency:    3.6918057617

- q-position: [    0.2150000,    0.0000000,    0.0000000 ]
  distance:    0.0745601
  band:
  - # 1
    frequency:    0.7071174208
  - # 2
    frequency:    0.8271644766
  - # 3
    frequency:    1.3579569469
  - # 4
    frequency:    2.3214468708
  - # 5
    frequency:    3.3358788879
  - # 6
    frequency:    3.7352286980

- q-position: [    0.2200000,    0.0000000,    0.0000000 ]
  distance:    0.0762940
  band:
  - # 1
    frequency:    0.7186693603
  - # 2
    frequency:    0.8483381628
  - # 3
    frequency:    1.3716819531
  - # 4
    frequency:    2.3200555640
  - # 5
    frequency:    3.3278928217
  - # 6
    frequency:    3.7780807507

- q-position: [    0.2250000,    0.0000000,    0.0000000 ]
  distance:    0.0780280
  band:
  - # 1
    frequency:    0.7300336007
  - # 2
    frequency:    0.8695852082
  - # 3
    frequency:    1.3849509174
  - # 4
    frequency:    2.3184749747
  - # 5
    frequency:    3.3197172202
  - # 6
    frequency:    3.8203241882

- q-position: [    0.2300000,    0.0000000,    0.0000000 ]
  distance:    0.0797619
  band:
  - # 1
    frequency:    0.7412179296
  - # 2
    frequency:    0.8909009920
  - # 3
    frequency:    1.3977783001
  - # 4
    frequency:    2.3167000892
  - # 5
    frequency:    3.3113531702
  - # 6
    frequency:    3.8619244086

- q-position: [    0.2350000,    0.0000000,    0.0000000 ]
  distance:    0.0814959
  band:
  - # 1
    frequency:    0.7522302930
  - # 2
    frequency:    0.9122805281
  - # 3
    frequency:    1.4101775458
  - # 4
    frequency:    2.3147263795
  - # 5
    frequency:    3.3028019662
  - # 6
    frequency:    3.9028497968

- q-position: [    0.2400000,    0.0000000,    0.0000000 ]
  distance:    0.0832298
  band:
  - # 1
    frequency:    0.7630787474
  - # 2
    frequency:    0.9337184580
  - # 3
    frequency:    1.4221611850
  - # 4
    frequency:    2.3125498315
  - # 5
    frequency:    3.2940651256
  - # 6
    frequency:    3.9430715850

- q-position: [    0.2450000,    0.0000000,    0.0000000 ]
  distance:    0.0849638
  band:
  - # 1
    frequency:    0.7737714085
  - # 2
    frequency:    0.9552090436
  - # 3
    frequency:    1.4337409289
  - # 4
    frequency:    2.3101669718
  - # 5
    frequency:    3.2851444057
  - # 6
    frequency:    3.9825637169

- q-position: [    0.2500000,    0.0000000,    0.0000000 ]
  distance:    0.0866977
  band:
  - # 1
    frequency:    0.7843164007
  - # 2
    frequency:    0.9767461578
  - # 3
    frequency:    1.4449277586
  - # 4
    frequency:    2.3075748941
  - # 5
    frequency:    3.2760418205
  - # 6
    frequency:    4.0213027168

- q-position: [    0.2550000,    0.0000000,    0.0000000 ]
  distance:    0.0884317
  band:
  - # 1
    frequency:    0.7947218038
  - # 2
    frequency:    0.9983232756
  - # 3
    frequency:    1.4557320076
  - # 4
    frequency:    2.3047712840
  - # 5
    frequency:    3.2667596600
  - # 6
    frequency:    4.0592675638

- q-position: [    0.2600000,    0.0000000,    0.0000000 ]
  distance:    0.0901657
  band:
  - # 1
    frequency:    0.8049955994
  - # 2
    frequency:    1.0199334634
  - # 3
    frequency:    1.4661634377
  - # 4
    frequency:    2.3017544439
  - # 5
    frequency:    3.2573005092
  - # 6
    frequency:    4.0964395692

- q-position: [    0.2650000,    0.0000000,    0.0000000 ]
  distance:    0.0918996
  band:
  - # 1
    frequency:    0.8151456161
  - # 2
    frequency:    1.0415693671
  - # 3
    frequency:    1.4762313083
  - # 4
    frequency:    2.2985233167
  - # 5
    frequency:    3.2476672699
  - # 6
    frequency:    4.1328022603

- q-position: [    0.2700000,    0.0000000,    0.0000000 ]
  distance:    0.0936336
  band:
  - # 1
    frequency:    0.8251794736
  - # 2
    frequency:    1.0632231991
  - # 3
    frequency:    1.4859444396
  - # 4
    frequency:    2.2950775083
  - # 5
    frequency:    3.2378631823
  - # 6
    frequency:    4.1683412675

- q-position: [    0.2750000,    0.0000000,    0.0000000 ]
  distance:    0.0953675
  band:
  - # 1
    frequency:    0.8351045263
  - # 2
    frequency:    1.0848867241
  - # 3
    frequency:    1.4953112695
  - # 4
    frequency:    2.2914173104
  - # 5
    frequency:    3.2278918497
  - # 6
    frequency:    4.2030442162

- q-position: [    0.2800000,    0.0000000,    0.0000000 ]
  distance:    0.0971015
  band:
  - # 1
    frequency:    0.8449278058
  - # 2
    frequency:    1.1065512425
  - # 3
    frequency:    1.5043399044
  - # 4
    frequency:    2.2875437220
  - # 5
    frequency:    3.2177572639
  - # 6
    frequency:    4.2369006219

- q-position: [    0.2850000,    0.0000000,    0.0000000 ]
  distance:    0.0988354
  band:
  - # 1
    frequency:    0.8546559633
  - # 2
    frequency:    1.1282075727
  - # 3
    frequency:    1.5130381654
  - # 4
    frequency:    2.2834584700
  - # 5
    frequency:    3.2074638326
  - # 6
    frequency:    4.2699017902

- q-position: [    0.2900000,    0.0000000,    0.0000000 ]
  distance:    0.1005694
  band:
  - # 1
    frequency:    0.8642952109
  - # 2
    frequency:    1.1498460311
  - # 3
    frequency:    1.5214136278
  - # 4
    frequency:    2.2791640303
  - # 5
    frequency:    3.1970164090
  - # 6
    frequency:    4.3020407194

- q-position: [    0.2950000,    0.0000000,    0.0000000 ]
  distance:    0.1023033
  band:
  - # 1
    frequency:    0.8738512635
  - # 2
    frequency:    1.1714564104
  - # 3
    frequency:    1.5294736568
  - # 4
    frequency:    2.2746636475
  - # 5
    frequency:    3.1864203232
  - # 6
    frequency:    4.3333120060

- q-position: [    0.3000000,    0.0000000,    0.0000000 ]
  distance:    0.1040373
  band:
  - # 1
    frequency:    0.8833292800
  - # 2
    frequency:    1.1930279548
  - # 3
    frequency:    1.5372254379
  - # 4
    frequency:    2.2699613548
  - # 5
    frequency:    3.1756814165
  - # 6
    frequency:    4.3637117543

- q-position: [    0.3050000,    0.0000000,    0.0000000 ]
  distance:    0.1057712
  band:
  - # 1
    frequency:    0.8927338043
  - # 2
    frequency:    1.2145493333
  - # 3
    frequency:    1.5446760037
  - # 4
    frequency:    2.2650619929
  - # 5
    frequency:    3.1648060776
  - # 6
    frequency:    4.3932374873

- q-position: [    0.3100000,    0.0000000,    0.0000000 ]
  distance:    0.1075052
  band:
  - # 1
    frequency:    0.9020687081
  - # 2
    frequency:    1.2360086097
  - # 3
    frequency:    1.5518322554
  - # 4
    frequency:    2.2599712295
  - # 5
    frequency:    3.1538012818
  - # 6
    frequency:    4.4218880605

- q-position: [    0.3150000,    0.0000000,    0.0000000 ]
  distance:    0.1092392
  band:
  - # 1
    frequency:    0.9113371321
  - # 2
    frequency:    1.2573932106
  - # 3
    frequency:    1.5587009822
  - # 4
    frequency:    2.2546955770
  - # 5
    frequency:    3.1426746333
  - # 6
    frequency:    4.4496635784

- q-position: [    0.3200000,    0.0000000,    0.0000000 ]
  distance:    0.1109731
  band:
  - # 1
    frequency:    0.9205414298
  - # 2
    frequency:    1.2786898887
  - # 3
    frequency:    1.5652888757
  - # 4
    frequency:    2.2492424118
  - # 5
    frequency:    3.1314344100
  - # 6
    frequency:    4.4765653120

- q-position: [    0.3250000,    0.0000000,    0.0000000 ]
  distance:    0.1127071
  band:
  - # 1
    frequency:    0.9296831118
  - # 2
    frequency:    1.2998846842
  - # 3
    frequency:    1.5716025425
  - # 4
    frequency:    2.2436199911
  - # 5
    frequency:    3.1200896123
  - # 6
    frequency:    4.5025956186

- q-position: [    0.3300000,    0.0000000,    0.0000000 ]
  distance:    0.1144410
  band:
  - # 1
    frequency:    0.9387627911
  - # 2
    frequency:    1.3209628814
  - # 3
    frequency:    1.5776485128
  - # 4
    frequency:    2.2378374709
  - # 5
    frequency:    3.1086500149
  - # 6
    frequency:    4.5277578634

- q-position: [    0.3350000,    0.0000000,    0.0000000 ]
  distance:    0.1161750
  band:
  - # 1
    frequency:    0.9477801308
  - # 2
    frequency:    1.3419089626
  - # 3
    frequency:    1.5834332466
  - # 4
    frequency:    2.2319049225
  - # 5
    frequency:    3.0971262227
  - # 6
    frequency:    4.5520563420

- q-position: [    0.3400000,    0.0000000,    0.0000000 ]
  distance:    0.1179089
  band:
  - # 1
    frequency:    0.9567337935
  - # 2
    frequency:    1.3627065573
  - # 3
    frequency:    1.5889631383
  - # 4
    frequency:    2.2258333482
  - # 5
    frequency:    3.0855297295
  - # 6
    frequency:    4.5754962051

- q-position: [    0.3450000,    0.0000000,    0.0000000 ]
  distance:    0.1196429
  band:
  - # 1
    frequency:    0.9656213941
  - # 2
    frequency:    1.3833383881
  - # 3
    frequency:    1.5942445178
  - # 4
    frequency:    2.2196346965
  - # 5
    frequency:    3.0738729820
  - # 6
    frequency:    4.5980833833

- q-position: [    0.3500000,    0.0000000,    0.0000000 ]
  distance:    0.1213768
  band:
  - # 1
    frequency:    0.9744394544
  - # 2
    frequency:    1.4037862117
  - # 3
    frequency:    1.5992836505
  - # 4
    frequency:    2.2133218750
  - # 5
    frequency:    3.0621694460
  - # 6
    frequency:    4.6198245147

- q-position: [    0.3550000,    0.0000000,    0.0000000 ]
  distance:    0.1231108
  band:
  - # 1
    frequency:    0.9831833627
  - # 2
    frequency:    1.4240307573
  - # 3
    frequency:    1.6040867351
  - # 4
    frequency:    2.2069087628
  - # 5
    frequency:    3.0504336774
  - # 6
    frequency:    4.6407268718

- q-position: [    0.3600000,    0.0000000,    0.0000000 ]
  distance:    0.1248447
  band:
  - # 1
    frequency:    0.9918473374
  - # 2
    frequency:    1.4440516604
  - # 3
    frequency:    1.6086598999
  - # 4
    frequency:    2.2004102189
  - # 5
    frequency:    3.0386813962
  - # 6
    frequency:    4.6607982914

- q-position: [    0.3650000,    0.0000000,    0.0000000 ]
  distance:    0.1265787
  band:
  - # 1
    frequency:    1.0004243949
  - # 2
    frequency:    1.4638273941
  - # 3
    frequency:    1.6130091978
  - # 4
    frequency:    2.1938420892
  - # 5
    frequency:    3.0269295633
  - # 6
    frequency:    4.6800471040

- q-position: [    0.3700000,    0.0000000,    0.0000000 ]
  distance:    0.1283127
  band:
  - # 1
    frequency:    1.0089063248
  - # 2
    frequency:    1.4833351972
  - # 3
    frequency:    1.6171405997
  - # 4
    frequency:    2.1872212088
  - # 5
    frequency:    3.0151964601
  - # 6
    frequency:    4.6984820654

- q-position: [    0.3750000,    0.0000000,    0.0000000 ]
  distance:    0.1300466
  band:
  - # 1
    frequency:    1.0172836712
  - # 2
    frequency:    1.5025510015
  - # 3
    frequency:    1.6210599872
  - # 4
    frequency:    2.1805654001
  - # 5
    frequency:    3.0035017691
  - # 6
    frequency:    4.7161122891

- q-position: [    0.3800000,    0.0000000,    0.0000000 ]
  distance:    0.1317806
  band:
  - # 1
    frequency:    1.0255457218
  - # 2
    frequency:    1.5214493583
  - # 3
    frequency:    1.6247731440
  - # 4
    frequency:    2.1738934648
  - # 5
    frequency:    2.9918666543
  - # 6
    frequency:    4.7329471795

- q-position: [    0.3850000,    0.0000000,    0.0000000 ]
  distance:    0.1335145
  band:
  - # 1
    frequency:    1.0336805069
  - # 2
    frequency:    1.5400033668
  - # 3
    frequency:    1.6282857468
  - # 4
    frequency:    2.1672251695
  - # 5
    frequency:    2.9803138403
  - # 6
    frequency:    4.7489963671

- q-position: [    0.3900000,    0.0000000,    0.0000000 ]
  distance:    0.1352485
  band:
  - # 1
    frequency:    1.0416748087
  - # 2
    frequency:    1.5581846062
  - # 3
    frequency:    1.6316033554
  - # 4
    frequency:    2.1605812227
  - # 5
    frequency:    2.9688676874
  - # 6
    frequency:    4.7642696442

- q-position: [    0.3950000,    0.0000000,    0.0000000 ]
  distance:    0.1369824
  band:
  - # 1
    frequency:    1.0495141825
  - # 2
    frequency:    1.5759630746
  - # 3
    frequency:    1.6347314020
  - # 4
    frequency:    2.1539832420
  - # 5
    frequency:    2.9575542588
  - # 6
    frequency:    4.7787769025

- q-position: [    0.4000000,    0.0000000,    0.0000000 ]
  distance:    0.1387164
  band:
  - # 1
    frequency:    1.0571829919
  - # 2
    frequency:    1.5933071384
  - # 3
    frequency:    1.6376751807
  - # 4
    frequency:    2.1474537097
  - # 5
    frequency:    2.9464013781
  - # 6
    frequency:    4.7925280718

- q-position: [    0.4050000,    0.0000000,    0.0000000 ]
  distance:    0.1404503
  band:
  - # 1
    frequency:    1.0646644593
  - # 2
    frequency:    1.6101834965
  - # 3
    frequency:    1.6404398361
  - # 4
    frequency:    2.1410159152
  - # 5
    frequency:    2.9354386709
  - # 6
    frequency:    4.8055330606

- q-position: [    0.4100000,    0.0000000,    0.0000000 ]
  distance:    0.1421843
  band:
  - # 1
    frequency:    1.0719407332
  - # 2
    frequency:    1.6265571655
  - # 3
    frequency:    1.6430303523
  - # 4
    frequency:    2.1346938822
  - # 5
    frequency:    2.9246975859
  - # 6
    frequency:    4.8178016979

- q-position: [    0.4150000,    0.0000000,    0.0000000 ]
  distance:    0.1439183
  band:
  - # 1
    frequency:    1.0789929752
  - # 2
    frequency:    1.6423914912
  - # 3
    frequency:    1.6454515411
  - # 4
    frequency:    2.1285122788
  - # 5
    frequency:    2.9142113893
  - # 6
    frequency:    4.8293436772

- q-position: [    0.4200000,    0.0000000,    0.0000000 ]
  distance:    0.1456522
  band:
  - # 1
    frequency:    1.0858014669
  - # 2
    frequency:    1.6477080310
  - # 3
    frequency:    1.6576481944
  - # 4
    frequency:    2.1224963085
  - # 5
    frequency:    2.9040151238
  - # 6
    frequency:    4.8401685020

- q-position: [    0.4250000,    0.0000000,    0.0000000 ]
  distance:    0.1473862
  band:
  - # 1
    frequency:    1.0923457393
  - # 2
    frequency:    1.6498042556
  - # 3
    frequency:    1.6722874586
  - # 4
    frequency:    2.1166715806
  - # 5
    frequency:    2.8941455263
  - # 6
    frequency:    4.8502854336

- q-position: [    0.4300000,    0.0000000,    0.0000000 ]
  distance:    0.1491201
  band:
  - # 1
    frequency:    1.0986047252
  - # 2
    frequency:    1.6517444430
  - # 3
    frequency:    1.6862680698
  - # 4
    frequency:    2.1110639594
  - # 5
    frequency:    2.8846408932
  - # 6
    frequency:    4.8597034407

- q-position: [    0.4350000,    0.0000000,    0.0000000 ]
  distance:    0.1508541
  band:
  - # 1
    frequency:    1.1045569359
  - # 2
    frequency:    1.6535326046
  - # 3
    frequency:    1.6995476146
  - # 4
    frequency:    2.1056993890
  - # 5
    frequency:    2.8755408867
  - # 6
    frequency:    4.8684311517

- q-position: [    0.4400000,    0.0000000,    0.0000000 ]
  distance:    0.1525880
  band:
  - # 1
    frequency:    1.1101806616
  - # 2
    frequency:    1.6551725248
  - # 3
    frequency:    1.7120827488
  - # 4
    frequency:    2.1006036969
  - # 5
    frequency:    2.8668862708
  - # 6
    frequency:    4.8764768086

- q-position: [    0.4450000,    0.0000000,    0.0000000 ]