ITEM: TIMESTEP
0
ITEM: NUMBER OF ATOMS
108
ITEM: BOX BOUNDS pp pp pp
0.0000000000000000e+00 1.2234000000000000e+01
0.0000000000000000e+00 1.2234000000000000e+01
0.0000000000000000e+00 1.2234000000000000e+01
ITEM: ATOMS id type x y z fx fy fz
1 1 0 0 0 -6.58942e-06 0.00191518 0.00197026
28 1 2.039 2.039 0 0.000128694 -1.99493e-16 -0.000328878
55 2 0.00707107 2.039 2.04607 -0.0268044 -2.91434e-16 -0.0137306
82 2 2.039 0 2.039 0.00450493 -0.00492854 -6.95506e-05
2 1 4.078 0 0 5.0261e-06 -7.48278e-05 -0.00031593
29 1 6.117 2.039 0 0.000431917 9.71445e-17 -1.07091e-06
56 2 4.078 2.039 2.039 0.000295867 -5.55112e-17 0.000163843
83 2 6.117 0 2.039 0.000503821 7.99798e-07 -1.17532e-05
3 1 8.156 0 0 -0.000248267 -7.81155e-05 5.03478e-05
30 1 10.195 2.039 0 0.00386302 -2.01228e-16 0.00416238
57 2 8.156 2.039 2.039 0.000314918 -8.32667e-17 0.000164142
84 2 10.195 0 2.039 0.00436013 0.0047515 -3.51001e-05
4 1 0 4.078 0 -6.58942e-06 -0.00191518 0.00197026
31 1 2.039 6.117 0 -2.02648e-05 0.000185971 -0.000241608
58 2 0 6.117 2.039 -9.29248e-05 8.07182e-06 0.000163964
85 2 2.039 4.078 2.039 0.00450493 0.00492854 -6.95506e-05
5 1 4.078 4.078 0 5.0261e-06 7.48278e-05 -0.00031593
32 1 6.117 6.117 0 2.80721e-05 -6.2492e-06 -1.18299e-06
59 2 4.078 6.117 2.039 0.000159459 0.000258498 -2.30669e-05
86 2 6.117 4.078 2.039 0.000503821 -7.99798e-07 -1.17532e-05
6 1 8.156 4.078 0 -0.000248267 7.81155e-05 5.03478e-05
33 1 10.195 6.117 0 -0.000185156 8.73276e-05 -3.54727e-05
60 2 8.156 6.117 2.039 0.000159579 -0.000258818 -2.25723e-05
87 2 10.195 4.078 2.039 0.00436013 -0.0047515 -3.51001e-05
7 1 0 8.156 0 -2.27832e-05 -7.44196e-16 -1.7381e-06
34 1 2.039 10.195 0 -2.02648e-05 -0.000185971 -0.000241608
61 2 0 10.195 2.039 -9.29248e-05 -8.07182e-06 0.000163964
88 2 2.039 8.156 2.039 -2.52366e-06 -7.72819e-16 -1.18203e-05
8 1 4.078 8.156 0 5.06406e-06 -5.34295e-16 -6.2976e-06
35 1 6.117 10.195 0 2.80721e-05 6.2492e-06 -1.18299e-06
62 2 4.078 10.195 2.039 0.000159459 -0.000258498 -2.30669e-05
89 2 6.117 8.156 2.039 4.20718e-06 -1.01828e-15 -2.1038e-06
9 1 8.156 8.156 0 1.77191e-05 -8.30933e-16 3.9204e-06
36 1 10.195 10.195 0 -0.000185156 -8.73276e-05 -3.54727e-05
63 2 8.156 10.195 2.039 0.000159579 0.000258818 -2.25723e-05
90 2 10.195 8.156 2.039 -1.68352e-06 -2.07473e-15 -1.16819e-05
10 1 0 0 4.078 -2.18722e-05 -0.00203975 0.0020813
37 1 2.039 2.039 4.078 0.00429064 -7.1991e-17 0.00458599
64 2 0 2.039 6.117 7.15242e-05 -2.08167e-17 3.85612e-05
91 2 2.039 0 6.117 -0.00035005 0.000344583 -0.000768162
11 1 4.078 0 4.078 -0.000305196 0.000110028 1.79162e-05
38 1 6.117 2.039 4.078 0.00043265 9.71445e-17 -3.7648e-06
65 2 4.078 2.039 6.117 0.000246101 2.498e-16 0.000199034
92 2 6.117 0 6.117 5.96441e-05 -2.87712e-06 5.79973e-06
12 1 8.156 0 4.078 9.29823e-06 7.88085e-05 -0.000320544
39 1 10.195 2.039 4.078 0.000112772 -3.46945e-16 -0.000313261
66 2 8.156 2.039 6.117 -9.10359e-05 5.55112e-17 -0.000137584
93 2 10.195 0 6.117 4.677e-05 5.34119e-05 -0.00034224
13 1 0 4.078 4.078 -2.18722e-05 0.00203975 0.0020813
40 1 2.039 6.117 4.078 -0.000197731 -0.000111158 -5.00559e-05
67 2 0 6.117 6.117 -6.92264e-05 0.000168551 3.08063e-05
94 2 2.039 4.078 6.117 -0.00035005 -0.000344583 -0.000768162
14 1 4.078 4.078 4.078 -0.000305196 -0.000110028 1.79162e-05
41 1 6.117 6.117 4.078 2.83928e-05 6.49703e-06 -1.23486e-06
68 2 4.078 6.117 6.117 6.68499e-05 6.83897e-05 4.33163e-05
95 2 6.117 4.078 6.117 5.96441e-05 2.87712e-06 5.79973e-06
15 1 8.156 4.078 4.078 9.29823e-06 -7.88085e-05 -0.000320544
42 1 10.195 6.117 4.078 -2.07833e-05 -0.000183625 -0.000241242
69 2 8.156 6.117 6.117 2.37657e-06 -3.84401e-06 -2.05311e-05
96 2 10.195 4.078 6.117 4.677e-05 -5.34119e-05 -0.00034224
16 1 0 8.156 4.078 -2.30831e-05 -5.44703e-16 -3.09747e-06
43 1 2.039 10.195 4.078 -0.000197731 0.000111158 -5.00559e-05
70 2 0 10.195 6.117 -6.92264e-05 -0.000168551 3.08063e-05
97 2 2.039 8.156 6.117 1.83061e-06 -9.87925e-16 8.79802e-06
17 1 4.078 8.156 4.078 1.79571e-05 -4.3715e-16 3.85143e-06
44 1 6.117 10.195 4.078 2.83928e-05 -6.49703e-06 -1.23486e-06
71 2 4.078 10.195 6.117 6.68499e-05 -6.83897e-05 4.33163e-05
98 2 6.117 8.156 6.117 2.12836e-06 -1.25074e-15 1.06992e-06
18 1 8.156 8.156 4.078 5.12597e-06 -5.31693e-16 -6.30979e-06
45 1 10.195 10.195 4.078 -2.07833e-05 0.000183625 -0.000241242
72 2 8.156 10.195 6.117 2.37657e-06 3.84401e-06 -2.05311e-05
99 2 10.195 8.156 6.117 -3.95896e-06 -2.10248e-15 2.85306e-06
19 1 0 0 8.156 -9.51747e-05 1.26602e-06 0.000576727
46 1 2.039 2.039 8.156 -3.69117e-06 -2.56739e-16 0.00057895
73 2 0 2.039 10.195 7.35974e-05 -4.16334e-17 5.84454e-05
100 2 2.039 0 10.195 3.97865e-05 -4.62269e-05 -0.000329644
20 1 4.078 0 8.156 4.87726e-05 -1.67246e-06 0.000101587
47 1 6.117 2.039 8.156 4.83647e-06 4.57967e-16 4.83572e-06
74 2 4.078 2.039 10.195 -9.14258e-05 -5.55112e-17 -0.000136288
101 2 6.117 0 10.195 5.83054e-05 2.99898e-06 5.95348e-06
21 1 8.156 0 8.156 4.64021e-05 1.64341e-06 9.93225e-05
48 1 10.195 2.039 8.156 -1.14529e-06 -1.63064e-16 0.000574505
75 2 8.156 2.039 10.195 0.000243529 1.11022e-16 0.000199143
102 2 10.195 0 10.195 -0.000273544 -0.000266174 -0.000614145
22 1 0 4.078 8.156 -9.51747e-05 -1.26602e-06 0.000576727
49 1 2.039 6.117 8.156 -1.19805e-06 4.71134e-05 0.000101543
76 2 0 6.117 10.195 -6.78444e-05 -0.000167493 3.13424e-05
103 2 2.039 4.078 10.195 3.97865e-05 4.62269e-05 -0.000329644
23 1 4.078 4.078 8.156 4.87726e-05 1.67246e-06 0.000101587
50 1 6.117 6.117 8.156 2.41823e-06 3.12968e-08 2.41786e-06
77 2 4.078 6.117 10.195 2.54807e-06 4.06314e-06 -2.02494e-05
104 2 6.117 4.078 10.195 5.83054e-05 -2.99898e-06 5.95348e-06
24 1 8.156 4.078 8.156 4.64021e-05 -1.64341e-06 9.93225e-05
51 1 10.195 6.117 8.156 -1.22018e-06 -4.47454e-05 9.93659e-05
78 2 8.156 6.117 10.195 6.52963e-05 -6.67416e-05 4.31035e-05
105 2 10.195 4.078 10.195 -0.000273544 0.000266174 -0.000614145
25 1 0 8.156 8.156 -2.41821e-06 -6.81746e-16 4.83557e-06
52 1 2.039 10.195 8.156 -1.19805e-06 -4.71134e-05 0.000101543
79 2 0 10.195 10.195 -6.78444e-05 0.000167493 3.13424e-05
106 2 2.039 8.156 10.195 -4.01971e-06 -1.67141e-15 3.02224e-06
26 1 4.078 8.156 8.156 1.23819e-06 -5.34295e-16 2.44617e-06
53 1 6.117 10.195 8.156 2.41823e-06 -3.12968e-08 2.41786e-06
80 2 4.078 10.195 10.195 2.54807e-06 -4.06314e-06 -2.02494e-05
107 2 6.117 8.156 10.195 2.07882e-06 -1.83881e-15 1.03388e-06
27 1 8.156 8.156 8.156 1.18002e-06 -5.07407e-16 2.38939e-06
54 1 10.195 10.195 8.156 -1.22018e-06 4.47454e-05 9.93659e-05
81 2 8.156 10.195 10.195 6.52963e-05 6.67416e-05 4.31035e-05
108 2 10.195 8.156 10.195 1.94089e-06 -2.86576e-15 8.82884e-06
