108  
2    

1    
  0.0070710678118655   0.0000000000000000   0.0070710678118655
  -0.0091667500   -0.0000000000   -0.0193025999
   0.0001082350    0.0000000000   -0.0006749349
   0.0001069020    0.0000000000   -0.0006646829
  -0.0000385330    0.0000026178   -0.0006697649
   0.0000724204    0.0000904763   -0.0000351880
   0.0000721275   -0.0000898686   -0.0000346227
  -0.0000385330   -0.0000026178   -0.0006697649
   0.0000724204   -0.0000904763   -0.0000351880
   0.0000721275    0.0000898686   -0.0000346227
  -0.0006456740    0.0000000000    0.0007398981
   0.0007700630    0.0000000000    0.0007848161
  -0.0000168909    0.0000000000   -0.0000049006
  -0.0000205575    0.0003919290    0.0003882521
   0.0000288664    0.0000372124    0.0000362427
  -0.0000083089    0.0000001083   -0.0000010986
  -0.0000205575   -0.0003919290    0.0003882521
   0.0000288664   -0.0000372124    0.0000362427
  -0.0000083089   -0.0000001083   -0.0000010986
  -0.0006358800    0.0000000000    0.0007377041
  -0.0000194242    0.0000000000   -0.0000023821
   0.0007598580   -0.0000000000    0.0007741371
  -0.0000202217   -0.0003911350    0.0003875281
  -0.0000083605   -0.0000001505   -0.0000010544
   0.0000285822   -0.0000366463    0.0000357217
  -0.0000202217    0.0003911350    0.0003875281
  -0.0000083605    0.0000001505   -0.0000010544
   0.0000285822    0.0000366463    0.0000357217
   0.0004002400    0.0004954440   -0.0008203179
   0.0001060990    0.0000002047   -0.0000350481
   0.0003559960   -0.0004458800   -0.0008089019
  -0.0000008301   -0.0000000000   -0.0000351896
   0.0000016205    0.0000000000   -0.0000008101
  -0.0000007905    0.0000000000   -0.0000349076
   0.0004002400   -0.0004954440   -0.0008203179
   0.0001060990   -0.0000002047   -0.0000350481
   0.0003559960    0.0004458800   -0.0008089019
   0.0001412660    0.0005207810    0.0006883131
   0.0000357643    0.0000088109    0.0000177170
  -0.0003238770   -0.0000528527    0.0002186581
   0.0000083591   -0.0000000000    0.0000264047
   0.0000008167   -0.0000000000    0.0000004095
  -0.0000091759    0.0000000000    0.0000087393
   0.0001412660   -0.0005207810    0.0006883131
   0.0000357643   -0.0000088109    0.0000177170
  -0.0003238770    0.0000528527    0.0002186581
  -0.0003232290    0.0000508353    0.0002194681
   0.0000351766   -0.0000087147    0.0000173314
   0.0001415090   -0.0005128920    0.0006800491
  -0.0000091587   -0.0000000000    0.0000087853
   0.0000008037   -0.0000000000    0.0000004009
   0.0000083549    0.0000000000    0.0000261686
  -0.0003232290   -0.0000508353    0.0002194681
   0.0000351766    0.0000087147    0.0000173314
   0.0001415090    0.0005128920    0.0006800491
  -0.0000252108    0.0024026100    0.0020719801
   0.0000145812    0.0001296640   -0.0002986379
  -0.0003083650    0.0000548004   -0.0000009899
  -0.0000230125    0.0000000000   -0.0000024139
   0.0000166319    0.0000000000    0.0000051603
   0.0000063806    0.0000000000   -0.0000075616
  -0.0000252108   -0.0024026100    0.0020719801
   0.0000145812   -0.0001296640   -0.0002986379
  -0.0003083650   -0.0000548004   -0.0000009899
  -0.0000951381    0.0000005241    0.0005766531
   0.0000478288    0.0000461515    0.0001013171
   0.0000473093   -0.0000456720    0.0000995539
  -0.0000024172    0.0000000000    0.0000048345
   0.0000012156    0.0000000000    0.0000024367
   0.0000012015    0.0000000000    0.0000023979
  -0.0000951381   -0.0000005241    0.0005766531
   0.0000478288   -0.0000461515    0.0001013171
   0.0000473093    0.0000456720    0.0000995539
  -0.0000031219   -0.0022912200    0.0019794901
  -0.0003136430   -0.0000583326    0.0000008857
   0.0000682176   -0.0001545920   -0.0002694299
  -0.0000228486    0.0000000000   -0.0000024201
   0.0000063608    0.0000000000   -0.0000075967
   0.0000164877    0.0000000000    0.0000051642
  -0.0000031219    0.0022912200    0.0019794901
  -0.0003136430    0.0000583326    0.0000008857
   0.0000682176    0.0001545920   -0.0002694299
   0.0046583300    0.0000000000    0.0042164601
   0.0004356500    0.0000000000   -0.0000023164
  -0.0002466050    0.0000000000    0.0000462162
  -0.0000124765    0.0001569620   -0.0002334109
   0.0000283453    0.0000052122   -0.0000011805
  -0.0002059940    0.0001853460   -0.0000560384
  -0.0000124765   -0.0001569620   -0.0002334109
   0.0000283453   -0.0000052122   -0.0000011805
  -0.0002059940   -0.0001853460   -0.0000560384
  -0.0000023062    0.0000000000    0.0005799411
   0.0000048341    0.0000000000    0.0000048340
  -0.0000025280    0.0000000000    0.0005733931
  -0.0000011754    0.0000017234    0.0001004911
   0.0000024170    0.0000000201    0.0000024171
  -0.0000012417   -0.0000015910    0.0001003661
  -0.0000011754   -0.0000017234    0.0001004911
   0.0000024170   -0.0000000201    0.0000024171
  -0.0000012417    0.0000015910    0.0001003661
  -0.0002509260    0.0000000000    0.0000509735
   0.0004288810    0.0000000000   -0.0000025172
   0.0042343400    0.0000000000    0.0037926801
  -0.0002046100   -0.0001842140   -0.0000572048
   0.0000281104   -0.0000049759   -0.0000012362
  -0.0000008461   -0.0001779880   -0.0002216729
  -0.0002046100    0.0001842140   -0.0000572048
   0.0000281104    0.0000049759   -0.0000012362
  -0.0000008461    0.0001779880   -0.0002216729

55   
  0.0070710678118655   0.0000000000000000   0.0070710678118655
  -0.0000065898    0.0019151800    0.0019702604
   0.0000050257   -0.0000748278   -0.0003159296
  -0.0002482674   -0.0000781155    0.0000503482
  -0.0000065898   -0.0019151800    0.0019702604
   0.0000050257    0.0000748278   -0.0003159296
  -0.0002482674    0.0000781155    0.0000503482
  -0.0000227836   -0.0000000000   -0.0000017377
   0.0000050637   -0.0000000000   -0.0000062972
   0.0000177187   -0.0000000000    0.0000039208
  -0.0000218726   -0.0020397500    0.0020813004
  -0.0003051964    0.0001100280    0.0000179166
   0.0000092979    0.0000788085   -0.0003205436
  -0.0000218726    0.0020397500    0.0020813004
  -0.0003051964   -0.0001100280    0.0000179166
   0.0000092979   -0.0000788085   -0.0003205436
  -0.0000230835   -0.0000000000   -0.0000030971
   0.0000179567   -0.0000000000    0.0000038518
   0.0000051256   -0.0000000000   -0.0000063094
  -0.0000951751    0.0000012660    0.0005767274
   0.0000487722   -0.0000016725    0.0001015874
   0.0000464017    0.0000016434    0.0000993229
  -0.0000951751   -0.0000012660    0.0005767274
   0.0000487722    0.0000016725    0.0001015874
   0.0000464017   -0.0000016434    0.0000993229
  -0.0000024186   -0.0000000000    0.0000048360
   0.0000012378   -0.0000000000    0.0000024466
   0.0000011797   -0.0000000000    0.0000023898
   0.0001286936   -0.0000000000   -0.0003288776
   0.0004319166    0.0000000000   -0.0000010705
   0.0038630196   -0.0000000000    0.0041623804
  -0.0000202652    0.0001859710   -0.0002416076
   0.0000280717   -0.0000062492   -0.0000011826
  -0.0001851564    0.0000873276   -0.0000354723
  -0.0000202652   -0.0001859710   -0.0002416076
   0.0000280717    0.0000062492   -0.0000011826
  -0.0001851564   -0.0000873276   -0.0000354723
   0.0042906396    0.0000000000    0.0045859904
   0.0004326496    0.0000000000   -0.0000037644
   0.0001127716   -0.0000000000   -0.0003132606
  -0.0001977314   -0.0001111580   -0.0000500555
   0.0000283924    0.0000064970   -0.0000012345
  -0.0000207837   -0.0001836250   -0.0002412416
  -0.0001977314    0.0001111580   -0.0000500555
   0.0000283924   -0.0000064970   -0.0000012345
  -0.0000207837    0.0001836250   -0.0002412416
  -0.0000036915   -0.0000000000    0.0005789504
   0.0000048361    0.0000000000    0.0000048361
  -0.0000011457    0.0000000000    0.0005745054
  -0.0000011984    0.0000471134    0.0001015434
   0.0000024179    0.0000000313    0.0000024182
  -0.0000012205   -0.0000447454    0.0000993663
  -0.0000011984   -0.0000471134    0.0001015434
   0.0000024179   -0.0000000313    0.0000024182
  -0.0000012205    0.0000447454    0.0000993663
  -0.0268044004   -0.0000000000   -0.0137305996
   0.0002958666    0.0000000000    0.0001638434
   0.0003149176    0.0000000000    0.0001641424
  -0.0000929252    0.0000080718    0.0001639644
   0.0001594586    0.0002584980   -0.0000230665
   0.0001595786   -0.0002588180   -0.0000225719
  -0.0000929252   -0.0000080718    0.0001639644
   0.0001594586   -0.0002584980   -0.0000230665
   0.0001595786    0.0002588180   -0.0000225719
   0.0000715238    0.0000000000    0.0000385616
   0.0002461006    0.0000000000    0.0001990344
  -0.0000910363    0.0000000000   -0.0001375836
  -0.0000692268    0.0001685510    0.0000308067
   0.0000668495    0.0000683897    0.0000433167
   0.0000023762   -0.0000038440   -0.0000205307
  -0.0000692268   -0.0001685510    0.0000308067
   0.0000668495   -0.0000683897    0.0000433167
   0.0000023762    0.0000038440   -0.0000205307
   0.0000735970    0.0000000000    0.0000584458
  -0.0000914262    0.0000000000   -0.0001362876
   0.0002435286    0.0000000000    0.0001991434
  -0.0000678448   -0.0001674930    0.0000313428
   0.0000025477    0.0000040631   -0.0000202490
   0.0000652959   -0.0000667416    0.0000431039
  -0.0000678448    0.0001674930    0.0000313428
   0.0000025477   -0.0000040631   -0.0000202490
   0.0000652959    0.0000667416    0.0000431039
   0.0045049296   -0.0049285400   -0.0000695502
   0.0005038206    0.0000007998   -0.0000117528
   0.0043601296    0.0047515000   -0.0000350997
   0.0045049296    0.0049285400   -0.0000695502
   0.0005038206   -0.0000007998   -0.0000117528
   0.0043601296   -0.0047515000   -0.0000350997
  -0.0000025240   -0.0000000000   -0.0000118199
   0.0000042068   -0.0000000000   -0.0000021034
  -0.0000016839   -0.0000000000   -0.0000116815
  -0.0003500504    0.0003445830   -0.0007681616
   0.0000596437   -0.0000028771    0.0000058001
   0.0000467696    0.0000534119   -0.0003422396
  -0.0003500504   -0.0003445830   -0.0007681616
   0.0000596437    0.0000028771    0.0000058001
   0.0000467696   -0.0000534119   -0.0003422396
   0.0000018302   -0.0000000000    0.0000087984
   0.0000021280   -0.0000000000    0.0000010703
  -0.0000039593   -0.0000000000    0.0000028534
   0.0000397861   -0.0000462269   -0.0003296436
   0.0000583050    0.0000029990    0.0000059539
  -0.0002735444   -0.0002661740   -0.0006141446
   0.0000397861    0.0000462269   -0.0003296436
   0.0000583050   -0.0000029990    0.0000059539
  -0.0002735444    0.0002661740   -0.0006141446
  -0.0000040201   -0.0000000000    0.0000030226
   0.0000020785   -0.0000000000    0.0000010343
   0.0000019405   -0.0000000000    0.0000088292
