ITEM: TIMESTEP
0
ITEM: NUMBER OF ATOMS
108
ITEM: BOX BOUNDS pp pp pp
0.0000000000000000e+00 1.2234000000000000e+01
0.0000000000000000e+00 1.2234000000000000e+01
0.0000000000000000e+00 1.2234000000000000e+01
ITEM: ATOMS id type x y z fx fy fz
1 1 0.00707107 0 0.00707107 -0.00916675 2.22045e-16 -0.0193026
28 1 2.039 2.039 0 0.00040024 0.000495444 -0.000820318
55 2 0 2.039 2.039 -2.52108e-05 0.00240261 0.00207198
82 2 2.039 0 2.039 0.00465833 1.40599e-15 0.00421646
2 1 4.078 0 0 0.000108235 4.44089e-16 -0.000674935
29 1 6.117 2.039 0 0.000106099 2.04653e-07 -3.50482e-05
56 2 4.078 2.039 2.039 1.45812e-05 0.000129664 -0.000298638
83 2 6.117 0 2.039 0.00043565 6.66134e-16 -2.31655e-06
3 1 8.156 0 0 0.000106902 3.31332e-16 -0.000664683
30 1 10.195 2.039 0 0.000355996 -0.00044588 -0.000808902
57 2 8.156 2.039 2.039 -0.000308365 5.48004e-05 -9.90019e-07
84 2 10.195 0 2.039 -0.000246605 1.2837e-15 4.62161e-05
4 1 0 4.078 0 -3.8533e-05 2.61784e-06 -0.000669765
31 1 2.039 6.117 0 -8.30034e-07 1.03216e-16 -3.51897e-05
58 2 0 6.117 2.039 -2.30125e-05 1.14492e-15 -2.41408e-06
85 2 2.039 4.078 2.039 -1.24765e-05 0.000156962 -0.000233411
5 1 4.078 4.078 0 7.24204e-05 9.04763e-05 -3.51881e-05
32 1 6.117 6.117 0 1.6205e-06 3.83157e-16 -8.10219e-07
59 2 4.078 6.117 2.039 1.66319e-05 1.09201e-15 5.16021e-06
86 2 6.117 4.078 2.039 2.83453e-05 5.21218e-06 -1.18059e-06
6 1 8.156 4.078 0 7.21275e-05 -8.98686e-05 -3.46228e-05
33 1 10.195 6.117 0 -7.90461e-07 8.55219e-16 -3.49077e-05
60 2 8.156 6.117 2.039 6.38058e-06 7.74554e-16 -7.56175e-06
87 2 10.195 4.078 2.039 -0.000205994 0.000185346 -5.60385e-05
7 1 0 8.156 0 -3.8533e-05 -2.61784e-06 -0.000669765
34 1 2.039 10.195 0 0.00040024 -0.000495444 -0.000820318
61 2 0 10.195 2.039 -2.52108e-05 -0.00240261 0.00207198
88 2 2.039 8.156 2.039 -1.24765e-05 -0.000156962 -0.000233411
8 1 4.078 8.156 0 7.24204e-05 -9.04763e-05 -3.51881e-05
35 1 6.117 10.195 0 0.000106099 -2.04653e-07 -3.50482e-05
62 2 4.078 10.195 2.039 1.45812e-05 -0.000129664 -0.000298638
89 2 6.117 8.156 2.039 2.83453e-05 -5.21218e-06 -1.18059e-06
9 1 8.156 8.156 0 7.21275e-05 8.98686e-05 -3.46228e-05
36 1 10.195 10.195 0 0.000355996 0.00044588 -0.000808902
63 2 8.156 10.195 2.039 -0.000308365 -5.48004e-05 -9.90019e-07
90 2 10.195 8.156 2.039 -0.000205994 -0.000185346 -5.60385e-05
10 1 0 0 4.078 -0.000645674 6.38378e-16 0.000739898
37 1 2.039 2.039 4.078 0.000141266 0.000520781 0.000688313
64 2 0 2.039 6.117 -9.51381e-05 5.24104e-07 0.000576653
91 2 2.039 0 6.117 -2.30617e-06 1.28109e-15 0.000579941
11 1 4.078 0 4.078 0.000770063 5.55112e-16 0.000784816
38 1 6.117 2.039 4.078 3.57643e-05 8.8109e-06 1.77169e-05
65 2 4.078 2.039 6.117 4.78288e-05 4.61515e-05 0.000101317
92 2 6.117 0 6.117 4.83414e-06 3.33067e-16 4.83387e-06
12 1 8.156 0 4.078 -1.68909e-05 3.92048e-16 -4.90069e-06
39 1 10.195 2.039 4.078 -0.000323877 -5.28527e-05 0.000218658
66 2 8.156 2.039 6.117 4.73093e-05 -4.5672e-05 9.95538e-05
93 2 10.195 0 6.117 -2.52796e-06 9.57567e-16 0.000573393
13 1 0 4.078 4.078 -2.05575e-05 0.000391929 0.000388252
40 1 2.039 6.117 4.078 8.35914e-06 -7.1991e-17 2.64046e-05
67 2 0 6.117 6.117 -2.41715e-06 1.32533e-15 4.83433e-06
94 2 2.039 4.078 6.117 -1.1754e-06 1.72342e-06 0.000100491
14 1 4.078 4.078 4.078 2.88664e-05 3.72124e-05 3.62426e-05
41 1 6.117 6.117 4.078 8.16766e-07 8.17488e-17 4.09408e-07
68 2 4.078 6.117 6.117 1.21562e-06 1.17788e-15 2.43661e-06
95 2 6.117 4.078 6.117 2.41707e-06 2.01194e-08 2.41693e-06
15 1 8.156 4.078 4.078 -8.30889e-06 1.08252e-07 -1.09875e-06
42 1 10.195 6.117 4.078 -9.1759e-06 7.63278e-16 8.7392e-06
69 2 8.156 6.117 6.117 1.20153e-06 9.44557e-16 2.39772e-06
96 2 10.195 4.078 6.117 -1.24167e-06 -1.59104e-06 0.000100366
16 1 0 8.156 4.078 -2.05575e-05 -0.000391929 0.000388252
43 1 2.039 10.195 4.078 0.000141266 -0.000520781 0.000688313
70 2 0 10.195 6.117 -9.51381e-05 -5.24104e-07 0.000576653
97 2 2.039 8.156 6.117 -1.1754e-06 -1.72342e-06 0.000100491
17 1 4.078 8.156 4.078 2.88664e-05 -3.72124e-05 3.62426e-05
44 1 6.117 10.195 4.078 3.57643e-05 -8.8109e-06 1.77169e-05
71 2 4.078 10.195 6.117 4.78288e-05 -4.61515e-05 0.000101317
98 2 6.117 8.156 6.117 2.41707e-06 -2.01194e-08 2.41693e-06
18 1 8.156 8.156 4.078 -8.30889e-06 -1.08252e-07 -1.09875e-06
45 1 10.195 10.195 4.078 -0.000323877 5.28527e-05 0.000218658
72 2 8.156 10.195 6.117 4.73093e-05 4.5672e-05 9.95538e-05
99 2 10.195 8.156 6.117 -1.24167e-06 1.59104e-06 0.000100366
19 1 0 0 8.156 -0.00063588 3.05311e-16 0.000737704
46 1 2.039 2.039 8.156 -0.000323229 5.08353e-05 0.000219468
73 2 0 2.039 10.195 -3.12189e-06 -0.00229122 0.00197949
100 2 2.039 0 10.195 -0.000250926 1.28109e-15 5.09734e-05
20 1 4.078 0 8.156 -1.94242e-05 3.33067e-16 -2.38221e-06
47 1 6.117 2.039 8.156 3.51766e-05 -8.71473e-06 1.73313e-05
74 2 4.078 2.039 10.195 -0.000313643 -5.83326e-05 8.85604e-07
101 2 6.117 0 10.195 0.000428881 7.21645e-16 -2.51731e-06
21 1 8.156 0 8.156 0.000759858 2.18575e-16 0.000774137
48 1 10.195 2.039 8.156 0.000141509 -0.000512892 0.000680049
75 2 8.156 2.039 10.195 6.82176e-05 -0.000154592 -0.00026943
102 2 10.195 0 10.195 0.00423434 1.02002e-15 0.00379268
22 1 0 4.078 8.156 -2.02217e-05 -0.000391135 0.000387528
49 1 2.039 6.117 8.156 -9.15869e-06 -8.32667e-17 8.78512e-06
76 2 0 6.117 10.195 -2.28486e-05 2.08167e-15 -2.42025e-06
103 2 2.039 4.078 10.195 -0.00020461 -0.000184214 -5.72049e-05
23 1 4.078 4.078 8.156 -8.36052e-06 -1.50548e-07 -1.05452e-06
50 1 6.117 6.117 8.156 8.03729e-07 -2.0383e-17 4.0081e-07
77 2 4.078 6.117 10.195 6.36082e-06 1.92381e-15 -7.59682e-06
104 2 6.117 4.078 10.195 2.81104e-05 -4.97589e-06 -1.23635e-06
24 1 8.156 4.078 8.156 2.85822e-05 -3.66463e-05 3.57216e-05
51 1 10.195 6.117 8.156 8.35496e-06 6.245e-16 2.61685e-05
78 2 8.156 6.117 10.195 1.64877e-05 1.67574e-15 5.16404e-06
105 2 10.195 4.078 10.195 -8.46029e-07 -0.000177988 -0.000221673
25 1 0 8.156 8.156 -2.02217e-05 0.000391135 0.000387528
52 1 2.039 10.195 8.156 -0.000323229 -5.08353e-05 0.000219468
79 2 0 10.195 10.195 -3.12189e-06 0.00229122 0.00197949
106 2 2.039 8.156 10.195 -0.00020461 0.000184214 -5.72049e-05
26 1 4.078 8.156 8.156 -8.36052e-06 1.50548e-07 -1.05452e-06
53 1 6.117 10.195 8.156 3.51766e-05 8.71473e-06 1.73313e-05
80 2 4.078 10.195 10.195 -0.000313643 5.83326e-05 8.85604e-07
107 2 6.117 8.156 10.195 2.81104e-05 4.97589e-06 -1.23635e-06
27 1 8.156 8.156 8.156 2.85822e-05 3.66463e-05 3.57216e-05
54 1 10.195 10.195 8.156 0.000141509 0.000512892 0.000680049
81 2 8.156 10.195 10.195 6.82176e-05 0.000154592 -0.00026943
108 2 10.195 8.156 10.195 -8.46029e-07 0.000177988 -0.000221673
