phonopy:
  version: "2.40.0"
  frequency_unit_conversion_factor: 15.633302
  symmetry_tolerance: 1.00000e-05
  configuration:
    cell_filename: "POSCAR"
    create_displacements: ".true."
    dim: "3 3 3"

physical_unit:
  atomic_mass: "AMU"
  length: "angstrom"

space_group:
  type: "P4/mmm"
  number: 123
  Hall_symbol: "-P 4 2"

supercell_matrix:
- [   3,   0,   0 ]
- [   0,   3,   0 ]
- [   0,   0,   3 ]

primitive_cell:
  lattice:
  - [     4.078000000000000,     0.000000000000000,     0.000000000000000 ] # a
  - [     0.000000000000000,     4.078000000000000,     0.000000000000000 ] # b
  - [     0.000000000000000,     0.000000000000000,     4.078000000000000 ] # c
  points:
  - symbol: Au # 1
    coordinates: [  0.000000000000000,  0.000000000000000,  0.000000000000000 ]
    mass: 196.966569
  - symbol: Au # 2
    coordinates: [  0.500000000000000,  0.500000000000000,  0.000000000000000 ]
    mass: 196.966569
  - symbol: Cu # 3
    coordinates: [  0.000000000000000,  0.500000000000000,  0.500000000000000 ]
    mass: 63.546000
  - symbol: Cu # 4
    coordinates: [  0.500000000000000,  0.000000000000000,  0.500000000000000 ]
    mass: 63.546000
  reciprocal_lattice: # without 2pi
  - [     0.245218244237371,     0.000000000000000,     0.000000000000000 ] # a*
  - [     0.000000000000000,     0.245218244237371,     0.000000000000000 ] # b*
  - [     0.000000000000000,     0.000000000000000,     0.245218244237371 ] # c*

unit_cell:
  lattice:
  - [     4.078000000000000,     0.000000000000000,     0.000000000000000 ] # a
  - [     0.000000000000000,     4.078000000000000,     0.000000000000000 ] # b
  - [     0.000000000000000,     0.000000000000000,     4.078000000000000 ] # c
  points:
  - symbol: Au # 1
    coordinates: [  0.000000000000000,  0.000000000000000,  0.000000000000000 ]
    mass: 196.966569
    reduced_to: 1
  - symbol: Au # 2
    coordinates: [  0.500000000000000,  0.500000000000000,  0.000000000000000 ]
    mass: 196.966569
    reduced_to: 2
  - symbol: Cu # 3
    coordinates: [  0.000000000000000,  0.500000000000000,  0.500000000000000 ]
    mass: 63.546000
    reduced_to: 3
  - symbol: Cu # 4
    coordinates: [  0.500000000000000,  0.000000000000000,  0.500000000000000 ]
    mass: 63.546000
    reduced_to: 4

supercell:
  lattice:
  - [    12.234000000000002,     0.000000000000000,     0.000000000000000 ] # a
  - [     0.000000000000000,    12.234000000000002,     0.000000000000000 ] # b
  - [     0.000000000000000,     0.000000000000000,    12.234000000000002 ] # c
  points:
  - symbol: Au # 1
    coordinates: [  0.000000000000000,  0.000000000000000,  0.000000000000000 ]
    mass: 196.966569
    reduced_to: 1
  - symbol: Au # 2
    coordinates: [  0.333333333333333,  0.000000000000000,  0.000000000000000 ]
    mass: 196.966569
    reduced_to: 1
  - symbol: Au # 3
    coordinates: [  0.666666666666667,  0.000000000000000,  0.000000000000000 ]
    mass: 196.966569
    reduced_to: 1
  - symbol: Au # 4
    coordinates: [  0.000000000000000,  0.333333333333333,  0.000000000000000 ]
    mass: 196.966569
    reduced_to: 1
  - symbol: Au # 5
    coordinates: [  0.333333333333333,  0.333333333333333,  0.000000000000000 ]
    mass: 196.966569
    reduced_to: 1
  - symbol: Au # 6
    coordinates: [  0.666666666666667,  0.333333333333333,  0.000000000000000 ]
    mass: 196.966569
    reduced_to: 1
  - symbol: Au # 7
    coordinates: [  0.000000000000000,  0.666666666666667,  0.000000000000000 ]
    mass: 196.966569
    reduced_to: 1
  - symbol: Au # 8
    coordinates: [  0.333333333333333,  0.666666666666667,  0.000000000000000 ]
    mass: 196.966569
    reduced_to: 1
  - symbol: Au # 9
    coordinates: [  0.666666666666667,  0.666666666666667,  0.000000000000000 ]
    mass: 196.966569
    reduced_to: 1
  - symbol: Au # 10
    coordinates: [  0.000000000000000,  0.000000000000000,  0.333333333333333 ]
    mass: 196.966569
    reduced_to: 1
  - symbol: Au # 11
    coordinates: [  0.333333333333333,  0.000000000000000,  0.333333333333333 ]
    mass: 196.966569
    reduced_to: 1
  - symbol: Au # 12
    coordinates: [  0.666666666666667,  0.000000000000000,  0.333333333333333 ]
    mass: 196.966569
    reduced_to: 1
  - symbol: Au # 13
    coordinates: [  0.000000000000000,  0.333333333333333,  0.333333333333333 ]
    mass: 196.966569
    reduced_to: 1
  - symbol: Au # 14
    coordinates: [  0.333333333333333,  0.333333333333333,  0.333333333333333 ]
    mass: 196.966569
    reduced_to: 1
  - symbol: Au # 15
    coordinates: [  0.666666666666667,  0.333333333333333,  0.333333333333333 ]
    mass: 196.966569
    reduced_to: 1
  - symbol: Au # 16
    coordinates: [  0.000000000000000,  0.666666666666667,  0.333333333333333 ]
    mass: 196.966569
    reduced_to: 1
  - symbol: Au # 17
    coordinates: [  0.333333333333333,  0.666666666666667,  0.333333333333333 ]
    mass: 196.966569
    reduced_to: 1
  - symbol: Au # 18
    coordinates: [  0.666666666666667,  0.666666666666667,  0.333333333333333 ]
    mass: 196.966569
    reduced_to: 1
  - symbol: Au # 19
    coordinates: [  0.000000000000000,  0.000000000000000,  0.666666666666667 ]
    mass: 196.966569
    reduced_to: 1
  - symbol: Au # 20
    coordinates: [  0.333333333333333,  0.000000000000000,  0.666666666666667 ]
    mass: 196.966569
    reduced_to: 1
  - symbol: Au # 21
    coordinates: [  0.666666666666667,  0.000000000000000,  0.666666666666667 ]
    mass: 196.966569
    reduced_to: 1
  - symbol: Au # 22
    coordinates: [  0.000000000000000,  0.333333333333333,  0.666666666666667 ]
    mass: 196.966569
    reduced_to: 1
  - symbol: Au # 23
    coordinates: [  0.333333333333333,  0.333333333333333,  0.666666666666667 ]
    mass: 196.966569
    reduced_to: 1
  - symbol: Au # 24
    coordinates: [  0.666666666666667,  0.333333333333333,  0.666666666666667 ]
    mass: 196.966569
    reduced_to: 1
  - symbol: Au # 25
    coordinates: [  0.000000000000000,  0.666666666666667,  0.666666666666667 ]
    mass: 196.966569
    reduced_to: 1
  - symbol: Au # 26
    coordinates: [  0.333333333333333,  0.666666666666667,  0.666666666666667 ]
    mass: 196.966569
    reduced_to: 1
  - symbol: Au # 27
    coordinates: [  0.666666666666667,  0.666666666666667,  0.666666666666667 ]
    mass: 196.966569
    reduced_to: 1
  - symbol: Au # 28
    coordinates: [  0.166666666666667,  0.166666666666667,  0.000000000000000 ]
    mass: 196.966569
    reduced_to: 28
  - symbol: Au # 29
    coordinates: [  0.500000000000000,  0.166666666666667,  0.000000000000000 ]
    mass: 196.966569
    reduced_to: 28
  - symbol: Au # 30
    coordinates: [  0.833333333333333,  0.166666666666667,  0.000000000000000 ]
    mass: 196.966569
    reduced_to: 28
  - symbol: Au # 31
    coordinates: [  0.166666666666667,  0.500000000000000,  0.000000000000000 ]
    mass: 196.966569
    reduced_to: 28
  - symbol: Au # 32
    coordinates: [  0.500000000000000,  0.500000000000000,  0.000000000000000 ]
    mass: 196.966569
    reduced_to: 28
  - symbol: Au # 33
    coordinates: [  0.833333333333333,  0.500000000000000,  0.000000000000000 ]
    mass: 196.966569
    reduced_to: 28
  - symbol: Au # 34
    coordinates: [  0.166666666666667,  0.833333333333333,  0.000000000000000 ]
    mass: 196.966569
    reduced_to: 28
  - symbol: Au # 35
    coordinates: [  0.500000000000000,  0.833333333333333,  0.000000000000000 ]
    mass: 196.966569
    reduced_to: 28
  - symbol: Au # 36
    coordinates: [  0.833333333333333,  0.833333333333333,  0.000000000000000 ]
    mass: 196.966569
    reduced_to: 28
  - symbol: Au # 37
    coordinates: [  0.166666666666667,  0.166666666666667,  0.333333333333333 ]
    mass: 196.966569
    reduced_to: 28
  - symbol: Au # 38
    coordinates: [  0.500000000000000,  0.166666666666667,  0.333333333333333 ]
    mass: 196.966569
    reduced_to: 28
  - symbol: Au # 39
    coordinates: [  0.833333333333333,  0.166666666666667,  0.333333333333333 ]
    mass: 196.966569
    reduced_to: 28
  - symbol: Au # 40
    coordinates: [  0.166666666666667,  0.500000000000000,  0.333333333333333 ]
    mass: 196.966569
    reduced_to: 28
  - symbol: Au # 41
    coordinates: [  0.500000000000000,  0.500000000000000,  0.333333333333333 ]
    mass: 196.966569
    reduced_to: 28
  - symbol: Au # 42
    coordinates: [  0.833333333333333,  0.500000000000000,  0.333333333333333 ]
    mass: 196.966569
    reduced_to: 28
  - symbol: Au # 43
    coordinates: [  0.166666666666667,  0.833333333333333,  0.333333333333333 ]
    mass: 196.966569
    reduced_to: 28
  - symbol: Au # 44
    coordinates: [  0.500000000000000,  0.833333333333333,  0.333333333333333 ]
    mass: 196.966569
    reduced_to: 28
  - symbol: Au # 45
    coordinates: [  0.833333333333333,  0.833333333333333,  0.333333333333333 ]
    mass: 196.966569
    reduced_to: 28
  - symbol: Au # 46
    coordinates: [  0.166666666666667,  0.166666666666667,  0.666666666666667 ]
    mass: 196.966569
    reduced_to: 28
  - symbol: Au # 47
    coordinates: [  0.500000000000000,  0.166666666666667,  0.666666666666667 ]
    mass: 196.966569
    reduced_to: 28
  - symbol: Au # 48
    coordinates: [  0.833333333333333,  0.166666666666667,  0.666666666666667 ]
    mass: 196.966569
    reduced_to: 28
  - symbol: Au # 49
    coordinates: [  0.166666666666667,  0.500000000000000,  0.666666666666667 ]
    mass: 196.966569
    reduced_to: 28
  - symbol: Au # 50
    coordinates: [  0.500000000000000,  0.500000000000000,  0.666666666666667 ]
    mass: 196.966569
    reduced_to: 28
  - symbol: Au # 51
    coordinates: [  0.833333333333333,  0.500000000000000,  0.666666666666667 ]
    mass: 196.966569
    reduced_to: 28
  - symbol: Au # 52
    coordinates: [  0.166666666666667,  0.833333333333333,  0.666666666666667 ]
    mass: 196.966569
    reduced_to: 28
  - symbol: Au # 53
    coordinates: [  0.500000000000000,  0.833333333333333,  0.666666666666667 ]
    mass: 196.966569
    reduced_to: 28
  - symbol: Au # 54
    coordinates: [  0.833333333333333,  0.833333333333333,  0.666666666666667 ]
    mass: 196.966569
    reduced_to: 28
  - symbol: Cu # 55
    coordinates: [  0.000000000000000,  0.166666666666667,  0.166666666666667 ]
    mass: 63.546000
    reduced_to: 55
  - symbol: Cu # 56
    coordinates: [  0.333333333333333,  0.166666666666667,  0.166666666666667 ]
    mass: 63.546000
    reduced_to: 55
  - symbol: Cu # 57
    coordinates: [  0.666666666666667,  0.166666666666667,  0.166666666666667 ]
    mass: 63.546000
    reduced_to: 55
  - symbol: Cu # 58
    coordinates: [  0.000000000000000,  0.500000000000000,  0.166666666666667 ]
    mass: 63.546000
    reduced_to: 55
  - symbol: Cu # 59
    coordinates: [  0.333333333333333,  0.500000000000000,  0.166666666666667 ]
    mass: 63.546000
    reduced_to: 55
  - symbol: Cu # 60
    coordinates: [  0.666666666666667,  0.500000000000000,  0.166666666666667 ]
    mass: 63.546000
    reduced_to: 55
  - symbol: Cu # 61
    coordinates: [  0.000000000000000,  0.833333333333333,  0.166666666666667 ]
    mass: 63.546000
    reduced_to: 55
  - symbol: Cu # 62
    coordinates: [  0.333333333333333,  0.833333333333333,  0.166666666666667 ]
    mass: 63.546000
    reduced_to: 55
  - symbol: Cu # 63
    coordinates: [  0.666666666666667,  0.833333333333333,  0.166666666666667 ]
    mass: 63.546000
    reduced_to: 55
  - symbol: Cu # 64
    coordinates: [  0.000000000000000,  0.166666666666667,  0.500000000000000 ]
    mass: 63.546000
    reduced_to: 55
  - symbol: Cu # 65
    coordinates: [  0.333333333333333,  0.166666666666667,  0.500000000000000 ]
    mass: 63.546000
    reduced_to: 55
  - symbol: Cu # 66
    coordinates: [  0.666666666666667,  0.166666666666667,  0.500000000000000 ]
    mass: 63.546000
    reduced_to: 55
  - symbol: Cu # 67
    coordinates: [  0.000000000000000,  0.500000000000000,  0.500000000000000 ]
    mass: 63.546000
    reduced_to: 55
  - symbol: Cu # 68
    coordinates: [  0.333333333333333,  0.500000000000000,  0.500000000000000 ]
    mass: 63.546000
    reduced_to: 55
  - symbol: Cu # 69
    coordinates: [  0.666666666666667,  0.500000000000000,  0.500000000000000 ]
    mass: 63.546000
    reduced_to: 55
  - symbol: Cu # 70
    coordinates: [  0.000000000000000,  0.833333333333333,  0.500000000000000 ]
    mass: 63.546000
    reduced_to: 55
  - symbol: Cu # 71
    coordinates: [  0.333333333333333,  0.833333333333333,  0.500000000000000 ]
    mass: 63.546000
    reduced_to: 55
  - symbol: Cu # 72
    coordinates: [  0.666666666666667,  0.833333333333333,  0.500000000000000 ]
    mass: 63.546000
    reduced_to: 55
  - symbol: Cu # 73
    coordinates: [  0.000000000000000,  0.166666666666667,  0.833333333333333 ]
    mass: 63.546000
    reduced_to: 55
  - symbol: Cu # 74
    coordinates: [  0.333333333333333,  0.166666666666667,  0.833333333333333 ]
    mass: 63.546000
    reduced_to: 55
  - symbol: Cu # 75
    coordinates: [  0.666666666666667,  0.166666666666667,  0.833333333333333 ]
    mass: 63.546000
    reduced_to: 55
  - symbol: Cu # 76
    coordinates: [  0.000000000000000,  0.500000000000000,  0.833333333333333 ]
    mass: 63.546000
    reduced_to: 55
  - symbol: Cu # 77
    coordinates: [  0.333333333333333,  0.500000000000000,  0.833333333333333 ]
    mass: 63.546000
    reduced_to: 55
  - symbol: Cu # 78
    coordinates: [  0.666666666666667,  0.500000000000000,  0.833333333333333 ]
    mass: 63.546000
    reduced_to: 55
  - symbol: Cu # 79
    coordinates: [  0.000000000000000,  0.833333333333333,  0.833333333333333 ]
    mass: 63.546000
    reduced_to: 55
  - symbol: Cu # 80
    coordinates: [  0.333333333333333,  0.833333333333333,  0.833333333333333 ]
    mass: 63.546000
    reduced_to: 55
  - symbol: Cu # 81
    coordinates: [  0.666666666666667,  0.833333333333333,  0.833333333333333 ]
    mass: 63.546000
    reduced_to: 55
  - symbol: Cu # 82
    coordinates: [  0.166666666666667,  0.000000000000000,  0.166666666666667 ]
    mass: 63.546000
    reduced_to: 82
  - symbol: Cu # 83
    coordinates: [  0.500000000000000,  0.000000000000000,  0.166666666666667 ]
    mass: 63.546000
    reduced_to: 82
  - symbol: Cu # 84
    coordinates: [  0.833333333333333,  0.000000000000000,  0.166666666666667 ]
    mass: 63.546000
    reduced_to: 82
  - symbol: Cu # 85
    coordinates: [  0.166666666666667,  0.333333333333333,  0.166666666666667 ]
    mass: 63.546000
    reduced_to: 82
  - symbol: Cu # 86
    coordinates: [  0.500000000000000,  0.333333333333333,  0.166666666666667 ]
    mass: 63.546000
    reduced_to: 82
  - symbol: Cu # 87
    coordinates: [  0.833333333333333,  0.333333333333333,  0.166666666666667 ]
    mass: 63.546000
    reduced_to: 82
  - symbol: Cu # 88
    coordinates: [  0.166666666666667,  0.666666666666667,  0.166666666666667 ]
    mass: 63.546000
    reduced_to: 82
  - symbol: Cu # 89
    coordinates: [  0.500000000000000,  0.666666666666667,  0.166666666666667 ]
    mass: 63.546000
    reduced_to: 82
  - symbol: Cu # 90
    coordinates: [  0.833333333333333,  0.666666666666667,  0.166666666666667 ]
    mass: 63.546000
    reduced_to: 82
  - symbol: Cu # 91
    coordinates: [  0.166666666666667,  0.000000000000000,  0.500000000000000 ]
    mass: 63.546000
    reduced_to: 82
  - symbol: Cu # 92
    coordinates: [  0.500000000000000,  0.000000000000000,  0.500000000000000 ]
    mass: 63.546000
    reduced_to: 82
  - symbol: Cu # 93
    coordinates: [  0.833333333333333,  0.000000000000000,  0.500000000000000 ]
    mass: 63.546000
    reduced_to: 82
  - symbol: Cu # 94
    coordinates: [  0.166666666666667,  0.333333333333333,  0.500000000000000 ]
    mass: 63.546000
    reduced_to: 82
  - symbol: Cu # 95
    coordinates: [  0.500000000000000,  0.333333333333333,  0.500000000000000 ]
    mass: 63.546000
    reduced_to: 82
  - symbol: Cu # 96
    coordinates: [  0.833333333333333,  0.333333333333333,  0.500000000000000 ]
    mass: 63.546000
    reduced_to: 82
  - symbol: Cu # 97
    coordinates: [  0.166666666666667,  0.666666666666667,  0.500000000000000 ]
    mass: 63.546000
    reduced_to: 82
  - symbol: Cu # 98
    coordinates: [  0.500000000000000,  0.666666666666667,  0.500000000000000 ]
    mass: 63.546000
    reduced_to: 82
  - symbol: Cu # 99
    coordinates: [  0.833333333333333,  0.666666666666667,  0.500000000000000 ]
    mass: 63.546000
    reduced_to: 82
  - symbol: Cu # 100
    coordinates: [  0.166666666666667,  0.000000000000000,  0.833333333333333 ]
    mass: 63.546000
    reduced_to: 82
  - symbol: Cu # 101
    coordinates: [  0.500000000000000,  0.000000000000000,  0.833333333333333 ]
    mass: 63.546000
    reduced_to: 82
  - symbol: Cu # 102
    coordinates: [  0.833333333333333,  0.000000000000000,  0.833333333333333 ]
    mass: 63.546000
    reduced_to: 82
  - symbol: Cu # 103
    coordinates: [  0.166666666666667,  0.333333333333333,  0.833333333333333 ]
    mass: 63.546000
    reduced_to: 82
  - symbol: Cu # 104
    coordinates: [  0.500000000000000,  0.333333333333333,  0.833333333333333 ]
    mass: 63.546000
    reduced_to: 82
  - symbol: Cu # 105
    coordinates: [  0.833333333333333,  0.333333333333333,  0.833333333333333 ]
    mass: 63.546000
    reduced_to: 82
  - symbol: Cu # 106
    coordinates: [  0.166666666666667,  0.666666666666667,  0.833333333333333 ]
    mass: 63.546000
    reduced_to: 82
  - symbol: Cu # 107
    coordinates: [  0.500000000000000,  0.666666666666667,  0.833333333333333 ]
    mass: 63.546000
    reduced_to: 82
  - symbol: Cu # 108
    coordinates: [  0.833333333333333,  0.666666666666667,  0.833333333333333 ]
    mass: 63.546000
    reduced_to: 82

displacements:
- atom:    1
  displacement:
    [   0.0070710678118655,  0.0000000000000000,  0.0070710678118655 ]
- atom:   55
  displacement:
    [   0.0070710678118655,  0.0000000000000000,  0.0070710678118655 ]
