 # generated by phonopy
  
         108  atoms
           2  atom types
 
      0.000000000000      12.234000000000  xlo xhi
      0.000000000000      12.234000000000  ylo yhi
      0.000000000000      12.234000000000  zlo zhi
 
Masses
 
            1   196.96656900            # Au
            2   63.54600000             # Cu
 
Atoms # atomic
 
         1    1        0.000000000000       0.000000000000       0.000000000000
         2    1        4.078000000000       0.000000000000       0.000000000000
         3    1        8.156000000000       0.000000000000       0.000000000000
         4    1        0.000000000000       4.078000000000       0.000000000000
         5    1        4.078000000000       4.078000000000       0.000000000000
         6    1        8.156000000000       4.078000000000       0.000000000000
         7    1        0.000000000000       8.156000000000       0.000000000000
         8    1        4.078000000000       8.156000000000       0.000000000000
         9    1        8.156000000000       8.156000000000       0.000000000000
        10    1        0.000000000000       0.000000000000       4.078000000000
        11    1        4.078000000000       0.000000000000       4.078000000000
        12    1        8.156000000000       0.000000000000       4.078000000000
        13    1        0.000000000000       4.078000000000       4.078000000000
        14    1        4.078000000000       4.078000000000       4.078000000000
        15    1        8.156000000000       4.078000000000       4.078000000000
        16    1        0.000000000000       8.156000000000       4.078000000000
        17    1        4.078000000000       8.156000000000       4.078000000000
        18    1        8.156000000000       8.156000000000       4.078000000000
        19    1        0.000000000000       0.000000000000       8.156000000000
        20    1        4.078000000000       0.000000000000       8.156000000000
        21    1        8.156000000000       0.000000000000       8.156000000000
        22    1        0.000000000000       4.078000000000       8.156000000000
        23    1        4.078000000000       4.078000000000       8.156000000000
        24    1        8.156000000000       4.078000000000       8.156000000000
        25    1        0.000000000000       8.156000000000       8.156000000000
        26    1        4.078000000000       8.156000000000       8.156000000000
        27    1        8.156000000000       8.156000000000       8.156000000000
        28    1        2.039000000000       2.039000000000       0.000000000000
        29    1        6.117000000000       2.039000000000       0.000000000000
        30    1       10.195000000000       2.039000000000       0.000000000000
        31    1        2.039000000000       6.117000000000       0.000000000000
        32    1        6.117000000000       6.117000000000       0.000000000000
        33    1       10.195000000000       6.117000000000       0.000000000000
        34    1        2.039000000000      10.195000000000       0.000000000000
        35    1        6.117000000000      10.195000000000       0.000000000000
        36    1       10.195000000000      10.195000000000       0.000000000000
        37    1        2.039000000000       2.039000000000       4.078000000000
        38    1        6.117000000000       2.039000000000       4.078000000000
        39    1       10.195000000000       2.039000000000       4.078000000000
        40    1        2.039000000000       6.117000000000       4.078000000000
        41    1        6.117000000000       6.117000000000       4.078000000000
        42    1       10.195000000000       6.117000000000       4.078000000000
        43    1        2.039000000000      10.195000000000       4.078000000000
        44    1        6.117000000000      10.195000000000       4.078000000000
        45    1       10.195000000000      10.195000000000       4.078000000000
        46    1        2.039000000000       2.039000000000       8.156000000000
        47    1        6.117000000000       2.039000000000       8.156000000000
        48    1       10.195000000000       2.039000000000       8.156000000000
        49    1        2.039000000000       6.117000000000       8.156000000000
        50    1        6.117000000000       6.117000000000       8.156000000000
        51    1       10.195000000000       6.117000000000       8.156000000000
        52    1        2.039000000000      10.195000000000       8.156000000000
        53    1        6.117000000000      10.195000000000       8.156000000000
        54    1       10.195000000000      10.195000000000       8.156000000000
        55    2        0.007071067812       2.039000000000       2.046071067812
        56    2        4.078000000000       2.039000000000       2.039000000000
        57    2        8.156000000000       2.039000000000       2.039000000000
        58    2        0.000000000000       6.117000000000       2.039000000000
        59    2        4.078000000000       6.117000000000       2.039000000000
        60    2        8.156000000000       6.117000000000       2.039000000000
        61    2        0.000000000000      10.195000000000       2.039000000000
        62    2        4.078000000000      10.195000000000       2.039000000000
        63    2        8.156000000000      10.195000000000       2.039000000000
        64    2        0.000000000000       2.039000000000       6.117000000000
        65    2        4.078000000000       2.039000000000       6.117000000000
        66    2        8.156000000000       2.039000000000       6.117000000000
        67    2        0.000000000000       6.117000000000       6.117000000000
        68    2        4.078000000000       6.117000000000       6.117000000000
        69    2        8.156000000000       6.117000000000       6.117000000000
        70    2        0.000000000000      10.195000000000       6.117000000000
        71    2        4.078000000000      10.195000000000       6.117000000000
        72    2        8.156000000000      10.195000000000       6.117000000000
        73    2        0.000000000000       2.039000000000      10.195000000000
        74    2        4.078000000000       2.039000000000      10.195000000000
        75    2        8.156000000000       2.039000000000      10.195000000000
        76    2        0.000000000000       6.117000000000      10.195000000000
        77    2        4.078000000000       6.117000000000      10.195000000000
        78    2        8.156000000000       6.117000000000      10.195000000000
        79    2        0.000000000000      10.195000000000      10.195000000000
        80    2        4.078000000000      10.195000000000      10.195000000000
        81    2        8.156000000000      10.195000000000      10.195000000000
        82    2        2.039000000000       0.000000000000       2.039000000000
        83    2        6.117000000000       0.000000000000       2.039000000000
        84    2       10.195000000000       0.000000000000       2.039000000000
        85    2        2.039000000000       4.078000000000       2.039000000000
        86    2        6.117000000000       4.078000000000       2.039000000000
        87    2       10.195000000000       4.078000000000       2.039000000000
        88    2        2.039000000000       8.156000000000       2.039000000000
        89    2        6.117000000000       8.156000000000       2.039000000000
        90    2       10.195000000000       8.156000000000       2.039000000000
        91    2        2.039000000000       0.000000000000       6.117000000000
        92    2        6.117000000000       0.000000000000       6.117000000000
        93    2       10.195000000000       0.000000000000       6.117000000000
        94    2        2.039000000000       4.078000000000       6.117000000000
        95    2        6.117000000000       4.078000000000       6.117000000000
        96    2       10.195000000000       4.078000000000       6.117000000000
        97    2        2.039000000000       8.156000000000       6.117000000000
        98    2        6.117000000000       8.156000000000       6.117000000000
        99    2       10.195000000000       8.156000000000       6.117000000000
       100    2        2.039000000000       0.000000000000      10.195000000000
       101    2        6.117000000000       0.000000000000      10.195000000000
       102    2       10.195000000000       0.000000000000      10.195000000000
       103    2        2.039000000000       4.078000000000      10.195000000000
       104    2        6.117000000000       4.078000000000      10.195000000000
       105    2       10.195000000000       4.078000000000      10.195000000000
       106    2        2.039000000000       8.156000000000      10.195000000000
       107    2        6.117000000000       8.156000000000      10.195000000000
       108    2       10.195000000000       8.156000000000      10.195000000000
